ITEM: TIMESTEP
0
ITEM: NUMBER OF ATOMS
4700
ITEM: BOX BOUNDS pp pp pp
-2.7149999999999999e+01 2.7149999999999999e+01
-2.7149999999999999e+01 2.7149999999999999e+01
0.0000000000000000e+00 5.4299999999999997e+01
ITEM: ATOMS id x y z
1 -27.15 -27.15 0
2 -27.15 -24.435 2.715
3 -24.435 -27.15 2.715
4 -24.435 -24.435 0
5 -25.7925 -25.7925 1.3575
6 -25.7925 -23.0775 4.0725
7 -23.0775 -25.7925 4.0725
8 -23.0775 -23.0775 1.3575
9 -21.72 -27.15 0
10 -21.72 -24.435 2.715
11 -19.005 -27.15 2.715
12 -19.005 -24.435 0
13 -20.3625 -25.7925 1.3575
14 -20.3625 -23.0775 4.0725
15 -17.6475 -25.7925 4.0725
16 -17.6475 -23.0775 1.3575
17 -16.29 -27.15 0
18 -16.29 -24.435 2.715
19 -13.575 -27.15 2.715
20 -13.575 -24.435 0
21 -14.9325 -25.7925 1.3575
22 -14.9325 -23.0775 4.0725
23 -12.2175 -25.7925 4.0725
24 -12.2175 -23.0775 1.3575
25 -10.86 -27.15 0
26 -10.86 -24.435 2.715
27 -8.145 -27.15 2.715
28 -8.145 -24.435 0
29 -9.5025 -25.7925 1.3575
30 -9.5025 -23.0775 4.0725
31 -6.7875 -25.7925 4.0725
32 -6.7875 -23.0775 1.3575
33 -5.43 -27.15 0
34 -5.43 -24.435 2.715
35 -2.715 -27.15 2.715
36 -2.715 -24.435 0
37 -4.0725 -25.7925 1.3575
38 -4.0725 -23.0775 4.0725
39 -1.3575 -25.7925 4.0725
40 -1.3575 -23.0775 1.3575
41 0 -27.15 0
42 0 -24.435 2.715
43 2.715 -27.15 2.715
44 2.715 -24.435 0
45 1.3575 -25.7925 1.3575
46 1.3575 -23.0775 4.0725
47 4.0725 -25.7925 4.0725
48 4.0725 -23.0775 1.3575
49 5.43 -27.15 0
50 5.43 -24.435 2.715
51 8.145 -27.15 2.715
52 8.145 -24.435 0
53 6.7875 -25.7925 1.3575
54 6.7875 -23.0775 4.0725
55 9.5025 -25.7925 4.0725
56 9.5025 -23.0775 1.3575
57 10.86 -27.15 0
58 10.86 -24.435 2.715
59 13.575 -27.15 2.715
60 13.575 -24.435 0
61 12.2175 -25.7925 1.3575
62 12.2175 -23.0775 4.0725
63 14.9325 -25.7925 4.0725
64 14.9325 -23.0775 1.3575
65 16.29 -27.15 0
66 16.29 -24.435 2.715
67 19.005 -27.15 2.715
68 19.005 -24.435 0
69 17.6475 -25.7925 1.3575
70 17.6475 -23.0775 4.0725
71 20.3625 -25.7925 4.0725
72 20.3625 -23.0775 1.3575
73 21.72 -27.15 0
74 21.72 -24.435 2.715
75 24.435 -27.15 2.715
76 24.435 -24.435 0
77 23.0775 -25.7925 1.3575
78 23.0775 -23.0775 4.0725
79 25.7925 -25.7925 4.0725
80 25.7925 -23.0775 1.3575
81 -27.15 -21.72 0
82 -27.15 -19.005 2.715
83 -24.435 -21.72 2.715
84 -24.435 -19.005 0
85 -25.7925 -20.3625 1.3575
86 -25.7925 -17.6475 4.0725
87 -23.0775 -20.3625 4.0725
88 -23.0775 -17.6475 1.3575
89 -21.72 -21.72 0
90 -21.72 -19.005 2.715
91 -19.005 -21.72 2.715
92 -19.005 -19.005 0
93 -20.3625 -20.3625 1.3575
94 -20.3625 -17.6475 4.0725
95 -17.6475 -20.3625 4.0725
96 -17.6475 -17.6475 1.3575
97 -16.29 -21.72 0
98 -16.29 -19.005 2.715
99 -13.575 -21.72 2.715
100 -13.575 -19.005 0
101 -14.9325 -20.3625 1.3575
102 -14.9325 -17.6475 4.0725
103 -12.2175 -20.3625 4.0725
104 -12.2175 -17.6475 1.3575
105 -10.86 -21.72 0
106 -10.86 -19.005 2.715
107 -8.145 -21.72 2.715
108 -8.145 -19.005 0
109 -9.5025 -20.3625 1.3575
110 -9.5025 -17.6475 4.0725
111 -6.7875 -20.3625 4.0725
112 -6.7875 -17.6475 1.3575
113 -5.43 -21.72 0
114 -5.43 -19.005 2.715
115 -2.715 -21.72 2.715
116 -2.715 -19.005 0
117 -4.0725 -20.3625 1.3575
118 -4.0725 -17.6475 4.0725
119 -1.3575 -20.3625 4.0725
120 -1.3575 -17.6475 1.3575
121 0 -21.72 0
122 0 -19.005 2.715
123 2.715 -21.72 2.715
124 2.715 -19.005 0
125 1.3575 -20.3625 1.3575
126 1.3575 -17.6475 4.0725
127 4.0725 -20.3625 4.0725
128 4.0725 -17.6475 1.3575
129 5.43 -21.72 0
130 5.43 -19.005 2.715
131 8.145 -21.72 2.715
132 8.145 -19.005 0
133 6.7875 -20.3625 1.3575
134 6.7875 -17.6475 4.0725
135 9.5025 -20.3625 4.0725
136 9.5025 -17.6475 1.3575
137 10.86 -21.72 0
138 10.86 -19.005 2.715
139 13.575 -21.72 2.715
140 13.575 -19.005 0
141 12.2175 -20.3625 1.3575
142 12.2175 -17.6475 4.0725
143 14.9325 -20.3625 4.0725
144 14.9325 -17.6475 1.3575
145 16.29 -21.72 0
146 16.29 -19.005 2.715
147 19.005 -21.72 2.715
148 19.005 -19.005 0
149 17.6475 -20.3625 1.3575
150 17.6475 -17.6475 4.0725
151 20.3625 -20.3625 4.0725
152 20.3625 -17.6475 1.3575
153 21.72 -21.72 0
154 21.72 -19.005 2.715
155 24.435 -21.72 2.715
156 24.435 -19.005 0
157 23.0775 -20.3625 1.3575
158 23.0775 -17.6475 4.0725
159 25.7925 -20.3625 4.0725
160 25.7925 -17.6475 1.3575
161 -27.15 -16.29 0
162 -27.15 -13.575 2.715
163 -24.435 -16.29 2.715
164 -24.435 -13.575 0
165 -25.7925 -14.9325 1.3575
166 -25.7925 -12.2175 4.0725
167 -23.0775 -14.9325 4.0725
168 -23.0775 -12.2175 1.3575
169 -21.72 -16.29 0
170 -21.72 -13.575 2.715
171 -19.005 -16.29 2.715
172 -19.005 -13.575 0
173 -20.3625 -14.9325 1.3575
174 -20.3625 -12.2175 4.0725
175 -17.6475 -14.9325 4.0725
176 -17.6475 -12.2175 1.3575
177 -16.29 -16.29 0
178 -16.29 -13.575 2.715
179 -13.575 -16.29 2.715
180 -13.575 -13.575 0
181 -14.9325 -14.9325 1.3575
182 -14.9325 -12.2175 4.0725
183 -12.2175 -14.9325 4.0725
184 -12.2175 -12.2175 1.3575
185 -10.86 -16.29 0
186 -10.86 -13.575 2.715
187 -8.145 -16.29 2.715
188 -8.145 -13.575 0
189 -9.5025 -14.9325 1.3575
190 -9.5025 -12.2175 4.0725
191 -6.7875 -14.9325 4.0725
192 -6.7875 -12.2175 1.3575
193 -5.43 -16.29 0
194 -5.43 -13.575 2.715
195 -2.715 -16.29 2.715
196 -2.715 -13.575 0
197 -4.0725 -14.9325 1.3575
198 -4.0725 -12.2175 4.0725
199 -1.3575 -14.9325 4.0725
200 -1.3575 -12.2175 1.3575
201 0 -16.29 0
202 0 -13.575 2.715
203 2.715 -16.29 2.715
204 2.715 -13.575 0
205 1.3575 -14.9325 1.3575
206 1.3575 -12.2175 4.0725
207 4.0725 -14.9325 4.0725
208 4.0725 -12.2175 1.3575
209 5.43 -16.29 0
210 5.43 -13.575 2.715
211 8.145 -16.29 2.715
212 8.145 -13.575 0
213 6.7875 -14.9325 1.3575
214 6.7875 -12.2175 4.0725
215 9.5025 -14.9325 4.0725
216 9.5025 -12.2175 1.3575
217 10.86 -16.29 0
218 10.86 -13.575 2.715
219 13.575 -16.29 2.715
220 13.575 -13.575 0
221 12.2175 -14.9325 1.3575
222 12.2175 -12.2175 4.0725
223 14.9325 -14.9325 4.0725
224 14.9325 -12.2175 1.3575
225 16.29 -16.29 0
226 16.29 -13.575 2.715
227 19.005 -16.29 2.715
228 19.005 -13.575 0
229 17.6475 -14.9325 1.3575
230 17.6475 -12.2175 4.0725
231 20.3625 -14.9325 4.0725
232 20.3625 -12.2175 1.3575
233 21.72 -16.29 0
234 21.72 -13.575 2.715
235 24.435 -16.29 2.715
236 24.435 -13.575 0
237 23.0775 -14.9325 1.3575
238 23.0775 -12.2175 4.0725
239 25.7925 -14.9325 4.0725
240 25.7925 -12.2175 1.3575
241 -27.15 -10.86 0
242 -27.15 -8.145 2.715
243 -24.435 -10.86 2.715
244 -24.435 -8.145 0
245 -25.7925 -9.5025 1.3575
246 -25.7925 -6.7875 4.0725
247 -23.0775 -9.5025 4.0725
248 -23.0775 -6.7875 1.3575
249 -21.72 -10.86 0
250 -21.72 -8.145 2.715
251 -19.005 -10.86 2.715
252 -19.005 -8.145 0
253 -20.3625 -9.5025 1.3575
254 -20.3625 -6.7875 4.0725
255 -17.6475 -9.5025 4.0725
256 -17.6475 -6.7875 1.3575
257 -16.29 -10.86 0
258 -16.29 -8.145 2.715
259 -13.575 -10.86 2.715
260 -13.575 -8.145 0
261 -14.9325 -9.5025 1.3575
262 -14.9325 -6.7875 4.0725
263 -12.2175 -9.5025 4.0725
264 -12.2175 -6.7875 1.3575
265 -10.86 -10.86 0
266 -10.86 -8.145 2.715
267 -8.145 -10.86 2.715
268 -8.145 -8.145 0
269 -9.5025 -9.5025 1.3575
270 -9.5025 -6.7875 4.0725
271 -6.7875 -9.5025 4.0725
272 -6.7875 -6.7875 1.3575
273 -5.43 -10.86 0
274 -5.43 -8.145 2.715
275 -2.715 -10.86 2.715
276 -2.715 -8.145 0
277 -4.0725 -9.5025 1.3575
278 -4.0725 -6.7875 4.0725
279 -1.3575 -9.5025 4.0725
280 -1.3575 -6.7875 1.3575
281 0 -10.86 0
282 0 -8.145 2.715
283 2.715 -10.86 2.715
284 2.715 -8.145 0
285 1.3575 -9.5025 1.3575
286 1.3575 -6.7875 4.0725
287 4.0725 -9.5025 4.0725
288 4.0725 -6.7875 1.3575
289 5.43 -10.86 0
290 5.43 -8.145 2.715
291 8.145 -10.86 2.715
292 8.145 -8.145 0
293 6.7875 -9.5025 1.3575
294 6.7875 -6.7875 4.0725
295 9.5025 -9.5025 4.0725
296 9.5025 -6.7875 1.3575
297 10.86 -10.86 0
298 10.86 -8.145 2.715
299 13.575 -10.86 2.715
300 13.575 -8.145 0
301 12.2175 -9.5025 1.3575
302 12.2175 -6.7875 4.0725
303 14.9325 -9.5025 4.0725
304 14.9325 -6.7875 1.3575
305 16.29 -10.86 0
306 16.29 -8.145 2.715
307 19.005 -10.86 2.715
308 19.005 -8.145 0
309 17.6475 -9.5025 1.3575
310 17.6475 -6.7875 4.0725
311 20.3625 -9.5025 4.0725
312 20.3625 -6.7875 1.3575
313 21.72 -10.86 0
314 21.72 -8.145 2.715
315 24.435 -10.86 2.715
316 24.435 -8.145 0
317 23.0775 -9.5025 1.3575
318 23.0775 -6.7875 4.0725
319 25.7925 -9.5025 4.0725
320 25.7925 -6.7875 1.3575
321 -27.15 -5.43 0
322 -27.15 -2.715 2.715
323 -24.435 -5.43 2.715
324 -24.435 -2.715 0
325 -25.7925 -4.0725 1.3575
326 -25.7925 -1.3575 4.0725
327 -23.0775 -4.0725 4.0725
328 -23.0775 -1.3575 1.3575
329 -21.72 -5.43 0
330 -21.72 -2.715 2.715
331 -19.005 -5.43 2.715
332 -19.005 -2.715 0
333 -20.3625 -4.0725 1.3575
334 -20.3625 -1.3575 4.0725
335 -17.6475 -4.0725 4.0725
336 -17.6475 -1.3575 1.3575
337 -16.29 -5.43 0
338 -16.29 -2.715 2.715
339 -13.575 -5.43 2.715
340 -13.575 -2.715 0
341 -14.9325 -4.0725 1.3575
342 -14.9325 -1.3575 4.0725
343 -12.2175 -4.0725 4.0725
344 -12.2175 -1.3575 1.3575
345 -10.86 -5.43 0
346 -10.86 -2.715 2.715
347 -8.145 -5.43 2.715
348 -8.145 -2.715 0
349 -9.5025 -4.0725 1.3575
350 -9.5025 -1.3575 4.0725
351 -6.7875 -4.0725 4.0725
352 -6.7875 -1.3575 1.3575
353 -5.43 -5.43 0
354 -5.43 -2.715 2.715
355 -2.715 -5.43 2.715
356 -2.715 -2.715 0
357 -4.0725 -4.0725 1.3575
358 -4.0725 -1.3575 4.0725
359 -1.3575 -4.0725 4.0725
360 -1.3575 -1.3575 1.3575
361 0 -5.43 0
362 0 -2.715 2.715
363 2.715 -5.43 2.715
364 2.715 -2.715 0
365 1.3575 -4.0725 1.3575
366 1.3575 -1.3575 4.0725
367 4.0725 -4.0725 4.0725
368 4.0725 -1.3575 1.3575
369 5.43 -5.43 0
370 5.43 -2.715 2.715
371 8.145 -5.43 2.715
372 8.145 -2.715 0
373 6.7875 -4.0725 1.3575
374 6.7875 -1.3575 4.0725
375 9.5025 -4.0725 4.0725
376 9.5025 -1.3575 1.3575
377 10.86 -5.43 0
378 10.86 -2.715 2.715
379 13.575 -5.43 2.715
380 13.575 -2.715 0
381 12.2175 -4.0725 1.3575
382 12.2175 -1.3575 4.0725
383 14.9325 -4.0725 4.0725
384 14.9325 -1.3575 1.3575
385 16.29 -5.43 0
386 16.29 -2.715 2.715
387 19.005 -5.43 2.715
388 19.005 -2.715 0
389 17.6475 -4.0725 1.3575
390 17.6475 -1.3575 4.0725
391 20.3625 -4.0725 4.0725
392 20.3625 -1.3575 1.3575
393 21.72 -5.43 0
394 21.72 -2.715 2.715
395 24.435 -5.43 2.715
396 24.435 -2.715 0
397 23.0775 -4.0725 1.3575
398 23.0775 -1.3575 4.0725
399 25.7925 -4.0725 4.0725
400 25.7925 -1.3575 1.3575
401 -27.15 0 0
402 -27.15 2.715 2.715
403 -24.435 0 2.715
404 -24.435 2.715 0
405 -25.7925 1.3575 1.3575
406 -25.7925 4.0725 4.0725
407 -23.0775 1.3575 4.0725
408 -23.0775 4.0725 1.3575
409 -21.72 0 0
410 -21.72 2.715 2.715
411 -19.005 0 2.715
412 -19.005 2.715 0
413 -20.3625 1.3575 1.3575
414 -20.3625 4.0725 4.0725
415 -17.6475 1.3575 4.0725
416 -17.6475 4.0725 1.3575
417 -16.29 0 0
418 -16.29 2.715 2.715
419 -13.575 0 2.715
420 -13.575 2.715 0
421 -14.9325 1.3575 1.3575
422 -14.9325 4.0725 4.0725
423 -12.2175 1.3575 4.0725
424 -12.2175 4.0725 1.3575
425 -10.86 0 0
426 -10.86 2.715 2.715
427 -8.145 0 2.715
428 -8.145 2.715 0
429 -9.5025 1.3575 1.3575
430 -9.5025 4.0725 4.0725
431 -6.7875 1.3575 4.0725
432 -6.7875 4.0725 1.3575
433 -5.43 0 0
434 -5.43 2.715 2.715
435 -2.715 0 2.715
436 -2.715 2.715 0
437 -4.0725 1.3575 1.3575
438 -4.0725 4.0725 4.0725
439 -1.3575 1.3575 4.0725
440 -1.3575 4.0725 1.3575
441 0 0 0
442 0 2.715 2.715
443 2.715 0 2.715
444 2.715 2.715 0
445 1.3575 1.3575 1.3575
446 1.3575 4.0725 4.0725
447 4.0725 1.3575 4.0725
448 4.0725 4.0725 1.3575
449 5.43 0 0
450 5.43 2.715 2.715
451 8.145 0 2.715
452 8.145 2.715 0
453 6.7875 1.3575 1.3575
454 6.7875 4.0725 4.0725
455 9.5025 1.3575 4.0725
456 9.5025 4.0725 1.3575
457 10.86 0 0
458 10.86 2.715 2.715
459 13.575 0 2.715
460 13.575 2.715 0
461 12.2175 1.3575 1.3575
462 12.2175 4.0725 4.0725
463 14.9325 1.3575 4.0725
464 14.9325 4.0725 1.3575
465 16.29 0 0
466 16.29 2.715 2.715
467 19.005 0 2.715
468 19.005 2.715 0
469 17.6475 1.3575 1.3575
470 17.6475 4.0725 4.0725
471 20.3625 1.3575 4.0725
472 20.3625 4.0725 1.3575
473 21.72 0 0
474 21.72 2.715 2.715
475 24.435 0 2.715
476 24.435 2.715 0
477 23.0775 1.3575 1.3575
478 23.0775 4.0725 4.0725
479 25.7925 1.3575 4.0725
480 25.7925 4.0725 1.3575
481 -27.15 5.43 0
482 -27.15 8.145 2.715
483 -24.435 5.43 2.715
484 -24.435 8.145 0
485 -25.7925 6.7875 1.3575
486 -25.7925 9.5025 4.0725
487 -23.0775 6.7875 4.0725
488 -23.0775 9.5025 1.3575
489 -21.72 5.43 0
490 -21.72 8.145 2.715
491 -19.005 5.43 2.715
492 -19.005 8.145 0
493 -20.3625 6.7875 1.3575
494 -20.3625 9.5025 4.0725
495 -17.6475 6.7875 4.0725
496 -17.6475 9.5025 1.3575
497 -16.29 5.43 0
498 -16.29 8.145 2.715
499 -13.575 5.43 2.715
500 -13.575 8.145 0
501 -14.9325 6.7875 1.3575
502 -14.9325 9.5025 4.0725
503 -12.2175 6.7875 4.0725
504 -12.2175 9.5025 1.3575
505 -10.86 5.43 0
506 -10.86 8.145 2.715
507 -8.145 5.43 2.715
508 -8.145 8.145 0
509 -9.5025 6.7875 1.3575
510 -9.5025 9.5025 4.0725
511 -6.7875 6.7875 4.0725
512 -6.7875 9.5025 1.3575
513 -5.43 5.43 0
514 -5.43 8.145 2.715
515 -2.715 5.43 2.715
516 -2.715 8.145 0
517 -4.0725 6.7875 1.3575
518 -4.0725 9.5025 4.0725
519 -1.3575 6.7875 4.0725
520 -1.3575 9.5025 1.3575
521 0 5.43 0
522 0 8.145 2.715
523 2.715 5.43 2.715
524 2.715 8.145 0
525 1.3575 6.7875 1.3575
526 1.3575 9.5025 4.0725
527 4.0725 6.7875 4.0725
528 4.0725 9.5025 1.3575
529 5.43 5.43 0
530 5.43 8.145 2.715
531 8.145 5.43 2.715
532 8.145 8.145 0
533 6.7875 6.7875 1.3575
534 6.7875 9.5025 4.0725
535 9.5025 6.7875 4.0725
536 9.5025 9.5025 1.3575
537 10.86 5.43 0
538 10.86 8.145 2.715
539 13.575 5.43 2.715
540 13.575 8.145 0
541 12.2175 6.7875 1.3575
542 12.2175 9.5025 4.0725
543 14.9325 6.7875 4.0725
544 14.9325 9.5025 1.3575
545 16.29 5.43 0
546 16.29 8.145 2.715
547 19.005 5.43 2.715
548 19.005 8.145 0
549 17.6475 6.7875 1.3575
550 17.6475 9.5025 4.0725
551 20.3625 6.7875 4.0725
552 20.3625 9.5025 1.3575
553 21.72 5.43 0
554 21.72 8.145 2.715
555 24.435 5.43 2.715
556 24.435 8.145 0
557 23.0775 6.7875 1.3575
558 23.0775 9.5025 4.0725
559 25.7925 6.7875 4.0725
560 25.7925 9.5025 1.3575
561 -27.15 10.86 0
562 -27.15 13.575 2.715
563 -24.435 10.86 2.715
564 -24.435 13.575 0
565 -25.7925 12.2175 1.3575
566 -25.7925 14.9325 4.0725
567 -23.0775 12.2175 4.0725
568 -23.0775 14.9325 1.3575
569 -21.72 10.86 0
570 -21.72 13.575 2.715
571 -19.005 10.86 2.715
572 -19.005 13.575 0
573 -20.3625 12.2175 1.3575
574 -20.3625 14.9325 4.0725
575 -17.6475 12.2175 4.0725
576 -17.6475 14.9325 1.3575
577 -16.29 10.86 0
578 -16.29 13.575 2.715
579 -13.575 10.86 2.715
580 -13.575 13.575 0
581 -14.9325 12.2175 1.3575
582 -14.9325 14.9325 4.0725
583 -12.2175 12.2175 4.0725
584 -12.2175 14.9325 1.3575
585 -10.86 10.86 0
586 -10.86 13.575 2.715
587 -8.145 10.86 2.715
588 -8.145 13.575 0
589 -9.5025 12.2175 1.3575
590 -9.5025 14.9325 4.0725
591 -6.7875 12.2175 4.0725
592 -6.7875 14.9325 1.3575
593 -5.43 10.86 0
594 -5.43 13.575 2.715
595 -2.715 10.86 2.715
596 -2.715 13.575 0
597 -4.0725 12.2175 1.3575
598 -4.0725 14.9325 4.0725
599 -1.3575 12.2175 4.0725
600 -1.3575 14.9325 1.3575
601 0 10.86 0
602 0 13.575 2.715
603 2.715 10.86 2.715
604 2.715 13.575 0
605 1.3575 12.2175 1.3575
606 1.3575 14.9325 4.0725
607 4.0725 12.2175 4.0725
608 4.0725 14.9325 1.3575
609 5.43 10.86 0
610 5.43 13.575 2.715
611 8.145 10.86 2.715
612 8.145 13.575 0
613 6.7875 12.2175 1.3575
614 6.7875 14.9325 4.0725
615 9.5025 12.2175 4.0725
616 9.5025 14.9325 1.3575
617 10.86 10.86 0
618 10.86 13.575 2.715
619 13.575 10.86 2.715
620 13.575 13.575 0
621 12.2175 12.2175 1.3575
622 12.2175 14.9325 4.0725
623 14.9325 12.2175 4.0725
624 14.9325 14.9325 1.3575
625 16.29 10.86 0
626 16.29 13.575 2.715
627 19.005 10.86 2.715
628 19.005 13.575 0
629 17.6475 12.2175 1.3575
630 17.6475 14.9325 4.0725
631 20.3625 12.2175 4.0725
632 20.3625 14.9325 1.3575
633 21.72 10.86 0
634 21.72 13.575 2.715
635 24.435 10.86 2.715
636 24.435 13.575 0
637 23.0775 12.2175 1.3575
638 23.0775 14.9325 4.0725
639 25.7925 12.2175 4.0725
640 25.7925 14.9325 1.3575
641 -27.15 16.29 0
642 -27.15 19.005 2.715
643 -24.435 16.29 2.715
644 -24.435 19.005 0
645 -25.7925 17.6475 1.3575
646 -25.7925 20.3625 4.0725
647 -23.0775 17.6475 4.0725
648 -23.0775 20.3625 1.3575
649 -21.72 16.29 0
650 -21.72 19.005 2.715
651 -19.005 16.29 2.715
652 -19.005 19.005 0
653 -20.3625 17.6475 1.3575
654 -20.3625 20.3625 4.0725
655 -17.6475 17.6475 4.0725
656 -17.6475 20.3625 1.3575
657 -16.29 16.29 0
658 -16.29 19.005 2.715
659 -13.575 16.29 2.715
660 -13.575 19.005 0
661 -14.9325 17.6475 1.3575
662 -14.9325 20.3625 4.0725
663 -12.2175 17.6475 4.0725
664 -12.2175 20.3625 1.3575
665 -10.86 16.29 0
666 -10.86 19.005 2.715
667 -8.145 16.29 2.715
668 -8.145 19.005 0
669 -9.5025 17.6475 1.3575
670 -9.5025 20.3625 4.0725
671 -6.7875 17.6475 4.0725
672 -6.7875 20.3625 1.3575
673 -5.43 16.29 0
674 -5.43 19.005 2.715
675 -2.715 16.29 2.715
676 -2.715 19.005 0
677 -4.0725 17.6475 1.3575
678 -4.0725 20.3625 4.0725
679 -1.3575 17.6475 4.0725
680 -1.3575 20.3625 1.3575
681 0 16.29 0
682 0 19.005 2.715
683 2.715 16.29 2.715
684 2.715 19.005 0
685 1.3575 17.6475 1.3575
686 1.3575 20.3625 4.0725
687 4.0725 17.6475 4.0725
688 4.0725 20.3625 1.3575
689 5.43 16.29 0
690 5.43 19.005 2.715
691 8.145 16.29 2.715
692 8.145 19.005 0
693 6.7875 17.6475 1.3575
694 6.7875 20.3625 4.0725
695 9.5025 17.6475 4.0725
696 9.5025 20.3625 1.3575
697 10.86 16.29 0
698 10.86 19.005 2.715
699 13.575 16.29 2.715
700 13.575 19.005 0
701 12.2175 17.6475 1.3575
702 12.2175 20.3625 4.0725
703 14.9325 17.6475 4.0725
704 14.9325 20.3625 1.3575
705 16.29 16.29 0
706 16.29 19.005 2.715
707 19.005 16.29 2.715
708 19.005 19.005 0
709 17.6475 17.6475 1.3575
710 17.6475 20.3625 4.0725
711 20.3625 17.6475 4.0725
712 20.3625 20.3625 1.3575
713 21.72 16.29 0
714 21.72 19.005 2.715
715 24.435 16.29 2.715
716 24.435 19.005 0
717 23.0775 17.6475 1.3575
718 23.0775 20.3625 4.0725
719 25.7925 17.6475 4.0725
720 25.7925 20.3625 1.3575
721 -27.15 21.72 0
722 -27.15 24.435 2.715
723 -24.435 21.72 2.715
724 -24.435 24.435 0
725 -25.7925 23.0775 1.3575
726 -25.7925 25.7925 4.0725
727 -23.0775 23.0775 4.0725
728 -23.0775 25.7925 1.3575
729 -21.72 21.72 0
730 -21.72 24.435 2.715
731 -19.005 21.72 2.715
732 -19.005 24.435 0
733 -20.3625 23.0775 1.3575
734 -20.3625 25.7925 4.0725
735 -17.6475 23.0775 4.0725
736 -17.6475 25.7925 1.3575
737 -16.29 21.72 0
738 -16.29 24.435 2.715
739 -13.575 21.72 2.715
740 -13.575 24.435 0
741 -14.9325 23.0775 1.3575
742 -14.9325 25.7925 4.0725
743 -12.2175 23.0775 4.0725
744 -12.2175 25.7925 1.3575
745 -10.86 21.72 0
746 -10.86 24.435 2.715
747 -8.145 21.72 2.715
748 -8.145 24.435 0
749 -9.5025 23.0775 1.3575
750 -9.5025 25.7925 4.0725
751 -6.7875 23.0775 4.0725
752 -6.7875 25.7925 1.3575
753 -5.43 21.72 0
754 -5.43 24.435 2.715
755 -2.715 21.72 2.715
756 -2.715 24.435 0
757 -4.0725 23.0775 1.3575
758 -4.0725 25.7925 4.0725
759 -1.3575 23.0775 4.0725
760 -1.3575 25.7925 1.3575
761 0 21.72 0
762 0 24.435 2.715
763 2.715 21.72 2.715
764 2.715 24.435 0
765 1.3575 23.0775 1.3575
766 1.3575 25.7925 4.0725
767 4.0725 23.0775 4.0725
768 4.0725 25.7925 1.3575
769 5.43 21.72 0
770 5.43 24.435 2.715
771 8.145 21.72 2.715
772 8.145 24.435 0
773 6.7875 23.0775 1.3575
774 6.7875 25.7925 4.0725
775 9.5025 23.0775 4.0725
776 9.5025 25.7925 1.3575
777 10.86 21.72 0
778 10.86 24.435 2.715
779 13.575 21.72 2.715
780 13.575 24.435 0
781 12.2175 23.0775 1.3575
782 12.2175 25.7925 4.0725
783 14.9325 23.0775 4.0725
784 14.9325 25.7925 1.3575
785 16.29 21.72 0
786 16.29 24.435 2.715
787 19.005 21.72 2.715
788 19.005 24.435 0
789 17.6475 23.0775 1.3575
790 17.6475 25.7925 4.0725
791 20.3625 23.0775 4.0725
792 20.3625 25.7925 1.3575
793 21.72 21.72 0
794 21.72 24.435 2.715
795 24.435 21.72 2.715
796 24.435 24.435 0
797 23.0775 23.0775 1.3575
798 23.0775 25.7925 4.0725
799 25.7925 23.0775 4.0725
800 25.7925 25.7925 1.3575
801 -27.15 -27.15 5.43
802 -27.15 -24.435 8.145
803 -24.435 -27.15 8.145
804 -24.435 -24.435 5.43
805 -25.7925 -25.7925 6.7875
806 -25.7925 -23.0775 9.5025
807 -23.0775 -25.7925 9.5025
808 -23.0775 -23.0775 6.7875
809 -21.72 -27.15 5.43
810 -21.72 -24.435 8.145
811 -19.005 -27.15 8.145
812 -19.005 -24.435 5.43
813 -20.3625 -25.7925 6.7875
814 -20.3625 -23.0775 9.5025
815 -17.6475 -25.7925 9.5025
816 -17.6475 -23.0775 6.7875
817 -16.29 -27.15 5.43
818 -16.29 -24.435 8.145
819 -13.575 -27.15 8.145
820 -13.575 -24.435 5.43
821 -14.9325 -25.7925 6.7875
822 -14.9325 -23.0775 9.5025
823 -12.2175 -25.7925 9.5025
824 -12.2175 -23.0775 6.7875
825 -10.86 -27.15 5.43
826 -10.86 -24.435 8.145
827 -8.145 -27.15 8.145
828 -8.145 -24.435 5.43
829 -9.5025 -25.7925 6.7875
830 -9.5025 -23.0775 9.5025
831 -6.7875 -25.7925 9.5025
832 -6.7875 -23.0775 6.7875
833 -5.43 -27.15 5.43
834 -5.43 -24.435 8.145
835 -2.715 -27.15 8.145
836 -2.715 -24.435 5.43
837 -4.0725 -25.7925 6.7875
838 -4.0725 -23.0775 9.5025
839 -1.3575 -25.7925 9.5025
840 -1.3575 -23.0775 6.7875
841 0 -27.15 5.43
842 0 -24.435 8.145
843 2.715 -27.15 8.145
844 2.715 -24.435 5.43
845 1.3575 -25.7925 6.7875
846 1.3575 -23.0775 9.5025
847 4.0725 -25.7925 9.5025
848 4.0725 -23.0775 6.7875
849 5.43 -27.15 5.43
850 5.43 -24.435 8.145
851 8.145 -27.15 8.145
852 8.145 -24.435 5.43
853 6.7875 -25.7925 6.7875
854 6.7875 -23.0775 9.5025
855 9.5025 -25.7925 9.5025
856 9.5025 -23.0775 6.7875
857 10.86 -27.15 5.43
858 10.86 -24.435 8.145
859 13.575 -27.15 8.145
860 13.575 -24.435 5.43
861 12.2175 -25.7925 6.7875
862 12.2175 -23.0775 9.5025
863 14.9325 -25.7925 9.5025
864 14.9325 -23.0775 6.7875
865 16.29 -27.15 5.43
866 16.29 -24.435 8.145
867 19.005 -27.15 8.145
868 19.005 -24.435 5.43
869 17.6475 -25.7925 6.7875
870 17.6475 -23.0775 9.5025
871 20.3625 -25.7925 9.5025
872 20.3625 -23.0775 6.7875
873 21.72 -27.15 5.43
874 21.72 -24.435 8.145
875 24.435 -27.15 8.145
876 24.435 -24.435 5.43
877 23.0775 -25.7925 6.7875
878 23.0775 -23.0775 9.5025
879 25.7925 -25.7925 9.5025
880 25.7925 -23.0775 6.7875
881 -27.15 -21.72 5.43
882 -27.15 -19.005 8.145
883 -24.435 -21.72 8.145
884 -24.435 -19.005 5.43
885 -25.7925 -20.3625 6.7875
886 -25.7925 -17.6475 9.5025
887 -23.0775 -20.3625 9.5025
888 -23.0775 -17.6475 6.7875
889 -21.72 -21.72 5.43
890 -21.72 -19.005 8.145
891 -19.005 -21.72 8.145
892 -19.005 -19.005 5.43
893 -20.3625 -20.3625 6.7875
894 -20.3625 -17.6475 9.5025
895 -17.6475 -20.3625 9.5025
896 -17.6475 -17.6475 6.7875
897 -16.29 -21.72 5.43
898 -16.29 -19.005 8.145
899 -13.575 -21.72 8.145
900 -13.575 -19.005 5.43
901 -14.9325 -20.3625 6.7875
902 -14.9325 -17.6475 9.5025
903 -12.2175 -20.3625 9.5025
904 -12.2175 -17.6475 6.7875
905 -10.86 -21.72 5.43
906 -10.86 -19.005 8.145
907 -8.145 -21.72 8.145
908 -8.145 -19.005 5.43
909 -9.5025 -20.3625 6.7875
910 -9.5025 -17.6475 9.5025
911 -6.7875 -20.3625 9.5025
912 -6.7875 -17.6475 6.7875
913 -5.43 -21.72 5.43
914 -5.43 -19.005 8.145
915 -2.715 -21.72 8.145
916 -2.715 -19.005 5.43
917 -4.0725 -20.3625 6.7875
918 -4.0725 -17.6475 9.5025
919 -1.3575 -20.3625 9.5025
920 -1.3575 -17.6475 6.7875
921 0 -21.72 5.43
922 0 -19.005 8.145
923 2.715 -21.72 8.145
924 2.715 -19.005 5.43
925 1.3575 -20.3625 6.7875
926 1.3575 -17.6475 9.5025
927 4.0725 -20.3625 9.5025
928 4.0725 -17.6475 6.7875
929 5.43 -21.72 5.43
930 5.43 -19.005 8.145
931 8.145 -21.72 8.145
932 8.145 -19.005 5.43
933 6.7875 -20.3625 6.7875
934 6.7875 -17.6475 9.5025
935 9.5025 -20.3625 9.5025
936 9.5025 -17.6475 6.7875
937 10.86 -21.72 5.43
938 10.86 -19.005 8.145
939 13.575 -21.72 8.145
940 13.575 -19.005 5.43
941 12.2175 -20.3625 6.7875
942 12.2175 -17.6475 9.5025
943 14.9325 -20.3625 9.5025
944 14.9325 -17.6475 6.7875
945 16.29 -21.72 5.43
946 16.29 -19.005 8.145
947 19.005 -21.72 8.145
948 19.005 -19.005 5.43
949 17.6475 -20.3625 6.7875
950 17.6475 -17.6475 9.5025
951 20.3625 -20.3625 9.5025
952 20.3625 -17.6475 6.7875
953 21.72 -21.72 5.43
954 21.72 -19.005 8.145
955 24.435 -21.72 8.145
956 24.435 -19.005 5.43
957 23.0775 -20.3625 6.7875
958 23.0775 -17.6475 9.5025
959 25.7925 -20.3625 9.5025
960 25.7925 -17.6475 6.7875
961 -27.15 -16.29 5.43
962 -27.15 -13.575 8.145
963 -24.435 -16.29 8.145
964 -24.435 -13.575 5.43
965 -25.7925 -14.9325 6.7875
966 -25.7925 -12.2175 9.5025
967 -23.0775 -14.9325 9.5025
968 -23.0775 -12.2175 6.7875
969 -21.72 -16.29 5.43
970 -21.72 -13.575 8.145
971 -19.005 -16.29 8.145
972 -19.005 -13.575 5.43
973 -20.3625 -14.9325 6.7875
974 -20.3625 -12.2175 9.5025
975 -17.6475 -14.9325 9.5025
976 -17.6475 -12.2175 6.7875
977 -16.29 -16.29 5.43
978 -16.29 -13.575 8.145
979 -13.575 -16.29 8.145
980 -13.575 -13.575 5.43
981 -14.9325 -14.9325 6.7875
982 -14.9325 -12.2175 9.5025
983 -12.2175 -14.9325 9.5025
984 -12.2175 -12.2175 6.7875
985 -10.86 -16.29 5.43
986 -10.86 -13.575 8.145
987 -8.145 -16.29 8.145
988 -8.145 -13.575 5.43
989 -9.5025 -14.9325 6.7875
990 -9.5025 -12.2175 9.5025
991 -6.7875 -14.9325 9.5025
992 -6.7875 -12.2175 6.7875
993 -5.43 -16.29 5.43
994 -5.43 -13.575 8.145
995 -2.715 -16.29 8.145
996 -2.715 -13.575 5.43
997 -4.0725 -14.9325 6.7875
998 -4.0725 -12.2175 9.5025
999 -1.3575 -14.9325 9.5025
1000 -1.3575 -12.2175 6.7875
1001 0 -16.29 5.43
1002 0 -13.575 8.145
1003 2.715 -16.29 8.145
1004 2.715 -13.575 5.43
1005 1.3575 -14.9325 6.7875
1006 1.3575 -12.2175 9.5025
1007 4.0725 -14.9325 9.5025
1008 4.0725 -12.2175 6.7875
1009 5.43 -16.29 5.43
1010 5.43 -13.575 8.145
1011 8.145 -16.29 8.145
1012 8.145 -13.575 5.43
1013 6.7875 -14.9325 6.7875
1014 6.7875 -12.2175 9.5025
1015 9.5025 -14.9325 9.5025
1016 9.5025 -12.2175 6.7875
1017 10.86 -16.29 5.43
1018 10.86 -13.575 8.145
1019 13.575 -16.29 8.145
1020 13.575 -13.575 5.43
1021 12.2175 -14.9325 6.7875
1022 12.2175 -12.2175 9.5025
1023 14.9325 -14.9325 9.5025
1024 14.9325 -12.2175 6.7875
1025 16.29 -16.29 5.43
1026 16.29 -13.575 8.145
1027 19.005 -16.29 8.145
1028 19.005 -13.575 5.43
1029 17.6475 -14.9325 6.7875
1030 17.6475 -12.2175 9.5025
1031 20.3625 -14.9325 9.5025
1032 20.3625 -12.2175 6.7875
1033 21.72 -16.29 5.43
1034 21.72 -13.575 8.145
1035 24.435 -16.29 8.145
1036 24.435 -13.575 5.43
1037 23.0775 -14.9325 6.7875
1038 23.0775 -12.2175 9.5025
1039 25.7925 -14.9325 9.5025
1040 25.7925 -12.2175 6.7875
1041 -27.15 -10.86 5.43
1042 -27.15 -8.145 8.145
1043 -24.435 -10.86 8.145
1044 -24.435 -8.145 5.43
1045 -25.7925 -9.5025 6.7875
1046 -25.7925 -6.7875 9.5025
1047 -23.0775 -9.5025 9.5025
1048 -23.0775 -6.7875 6.7875
1049 -21.72 -10.86 5.43
1050 -21.72 -8.145 8.145
1051 -19.005 -10.86 8.145
1052 -19.005 -8.145 5.43
1053 -20.3625 -9.5025 6.7875
1054 -20.3625 -6.7875 9.5025
1055 -17.6475 -9.5025 9.5025
1056 -17.6475 -6.7875 6.7875
1057 -16.29 -10.86 5.43
1058 -16.29 -8.145 8.145
1059 -13.575 -10.86 8.145
1060 -13.575 -8.145 5.43
1061 -14.9325 -9.5025 6.7875
1062 -14.9325 -6.7875 9.5025
1063 -12.2175 -9.5025 9.5025
1064 -12.2175 -6.7875 6.7875
1065 -10.86 -10.86 5.43
1066 -10.86 -8.145 8.145
1067 -8.145 -10.86 8.145
1068 -8.145 -8.145 5.43
1069 -9.5025 -9.5025 6.7875
1070 -9.5025 -6.7875 9.5025
1071 -6.7875 -9.5025 9.5025
1072 -6.7875 -6.7875 6.7875
1073 -5.43 -10.86 5.43
1074 -5.43 -8.145 8.145
1075 -2.715 -10.86 8.145
1076 -2.715 -8.145 5.43
1077 -4.0725 -9.5025 6.7875
1078 -4.0725 -6.7875 9.5025
1079 -1.3575 -9.5025 9.5025
1080 -1.3575 -6.7875 6.7875
1081 0 -10.86 5.43
1082 0 -8.145 8.145
1083 2.715 -10.86 8.145
1084 2.715 -8.145 5.43
1085 1.3575 -9.5025 6.7875
1086 1.3575 -6.7875 9.5025
1087 4.0725 -9.5025 9.5025
1088 4.0725 -6.7875 6.7875
1089 5.43 -10.86 5.43
1090 5.43 -8.145 8.145
1091 8.145 -10.86 8.145
1092 8.145 -8.145 5.43
1093 6.7875 -9.5025 6.7875
1094 6.7875 -6.7875 9.5025
1095 9.5025 -9.5025 9.5025
1096 9.5025 -6.7875 6.7875
1097 10.86 -10.86 5.43
1098 10.86 -8.145 8.145
1099 13.575 -10.86 8.145
1100 13.575 -8.145 5.43
1101 12.2175 -9.5025 6.7875
1102 12.2175 -6.7875 9.5025
1103 14.9325 -9.5025 9.5025
1104 14.9325 -6.7875 6.7875
1105 16.29 -10.86 5.43
1106 16.29 -8.145 8.145
1107 19.005 -10.86 8.145
1108 19.005 -8.145 5.43
1109 17.6475 -9.5025 6.7875
1110 17.6475 -6.7875 9.5025
1111 20.3625 -9.5025 9.5025
1112 20.3625 -6.7875 6.7875
1113 21.72 -10.86 5.43
1114 21.72 -8.145 8.145
1115 24.435 -10.86 8.145
1116 24.435 -8.145 5.43
1117 23.0775 -9.5025 6.7875
1118 23.0775 -6.7875 9.5025
1119 25.7925 -9.5025 9.5025
1120 25.7925 -6.7875 6.7875
1121 -27.15 -5.43 5.43
1122 -27.15 -2.715 8.145
1123 -24.435 -5.43 8.145
1124 -24.435 -2.715 5.43
1125 -25.7925 -4.0725 6.7875
1126 -25.7925 -1.3575 9.5025
1127 -23.0775 -4.0725 9.5025
1128 -23.0775 -1.3575 6.7875
1129 -21.72 -5.43 5.43
1130 -21.72 -2.715 8.145
1131 -19.005 -5.43 8.145
1132 -19.005 -2.715 5.43
1133 -20.3625 -4.0725 6.7875
1134 -20.3625 -1.3575 9.5025
1135 -17.6475 -4.0725 9.5025
1136 -17.6475 -1.3575 6.7875
1137 -16.29 -5.43 5.43
1138 -16.29 -2.715 8.145
1139 -13.575 -5.43 8.145
1140 -13.575 -2.715 5.43
1141 -14.9325 -4.0725 6.7875
1142 -14.9325 -1.3575 9.5025
1143 -12.2175 -4.0725 9.5025
1144 -12.2175 -1.3575 6.7875
1145 -10.86 -5.43 5.43
1146 -10.86 -2.715 8.145
1147 -8.145 -5.43 8.145
1148 -8.145 -2.715 5.43
1149 -9.5025 -4.0725 6.7875
1150 -9.5025 -1.3575 9.5025
1151 -6.7875 -4.0725 9.5025
1152 -6.7875 -1.3575 6.7875
1153 -5.43 -5.43 5.43
1154 -5.43 -2.715 8.145
1155 -2.715 -5.43 8.145
1156 -2.715 -2.715 5.43
1157 -4.0725 -4.0725 6.7875
1158 -4.0725 -1.3575 9.5025
1159 -1.3575 -4.0725 9.5025
1160 -1.3575 -1.3575 6.7875
1161 0 -5.43 5.43
1162 0 -2.715 8.145
1163 2.715 -5.43 8.145
1164 2.715 -2.715 5.43
1165 1.3575 -4.0725 6.7875
1166 1.3575 -1.3575 9.5025
1167 4.0725 -4.0725 9.5025
1168 4.0725 -1.3575 6.7875
1169 5.43 -5.43 5.43
1170 5.43 -2.715 8.145
1171 8.145 -5.43 8.145
1172 8.145 -2.715 5.43
1173 6.7875 -4.0725 6.7875
1174 6.7875 -1.3575 9.5025
1175 9.5025 -4.0725 9.5025
1176 9.5025 -1.3575 6.7875
1177 10.86 -5.43 5.43
1178 10.86 -2.715 8.145
1179 13.575 -5.43 8.145
1180 13.575 -2.715 5.43
1181 12.2175 -4.0725 6.7875
1182 12.2175 -1.3575 9.5025
1183 14.9325 -4.0725 9.5025
1184 14.9325 -1.3575 6.7875
1185 16.29 -5.43 5.43
1186 16.29 -2.715 8.145
1187 19.005 -5.43 8.145
1188 19.005 -2.715 5.43
1189 17.6475 -4.0725 6.7875
1190 17.6475 -1.3575 9.5025
1191 20.3625 -4.0725 9.5025
1192 20.3625 -1.3575 6.7875
1193 21.72 -5.43 5.43
1194 21.72 -2.715 8.145
1195 24.435 -5.43 8.145
1196 24.435 -2.715 5.43
1197 23.0775 -4.0725 6.7875
1198 23.0775 -1.3575 9.5025
1199 25.7925 -4.0725 9.5025
1200 25.7925 -1.3575 6.7875
1201 -27.15 0 5.43
1202 -27.15 2.715 8.145
1203 -24.435 0 8.145
1204 -24.435 2.715 5.43
1205 -25.7925 1.3575 6.7875
1206 -25.7925 4.0725 9.5025
1207 -23.0775 1.3575 9.5025
1208 -23.0775 4.0725 6.7875