ITEM: TIMESTEP
0
ITEM: NUMBER OF ATOMS
60
ITEM: BOX BOUNDS pp pp mm
-1.0859999999999999e+02 1.0859999999999999e+02
-1.0859999999999999e+02 1.0859999999999999e+02
-8.6916753651232256e+01 5.4300000000000000e+02
ITEM: ATOMS id type x y z vx vy vz c_atom_ke
403213 2 -2.11609 -31.3462 380.662 0 64.4061 -458.273 133.3
403226 2 0.196292 -32.2021 380.556 0 64.4061 -458.273 133.3
403214 2 -0.844204 -31.4548 379.982 0 64.4061 -458.273 133.3
403230 2 1.55148 -31.6988 380.523 0 64.4061 -458.273 133.3
403202 2 -1.65773 -29.2862 379.652 0 64.4061 -458.273 133.3
403205 2 -2.61887 -30.0059 380.457 0 64.4061 -458.273 133.3
403212 2 0.754551 -29.6931 379.326 0 64.4061 -458.273 133.3
403208 2 -0.560924 -30.1817 379.358 0 64.4061 -458.273 133.3
403229 2 2.74732 -29.54 380.542 0 64.4061 -458.273 133.3
403221 2 1.82646 -30.463 379.917 0 64.4061 -458.273 133.3
403201 2 -1.40692 -27.9284 379.904 0 64.4061 -458.273 133.3
403204 2 -0.051728 -27.4251 379.871 0 64.4061 -458.273 133.3
403211 2 1.01293 -28.2943 379.586 0 64.4061 -458.273 133.3
403219 2 2.24453 -28.1997 380.338 0 64.4061 -458.273 133.3
403234 2 -1.23829 -32.7579 382.486 0 64.4061 -458.273 133.3
403228 2 -3.01296 -31.309 382.961 0 64.4061 -458.273 133.3
403224 2 -2.3102 -31.988 381.895 0 64.4061 -458.273 133.3
403236 2 -0.00368088 -32.8633 381.826 0 64.4061 -458.273 133.3
403245 2 1.22792 -32.7687 382.578 0 64.4061 -458.273 133.3
403241 2 2.18906 -32.049 381.772 0 64.4061 -458.273 133.3
403246 2 3.08293 -31.1531 382.38 0 64.4061 -458.273 133.3
403218 2 -3.50101 -30.008 382.762 0 64.4061 -458.273 133.3
403210 2 -3.30103 -29.3468 381.492 0 64.4061 -458.273 133.3
403243 2 3.50101 -28.8898 382.8 0 64.4061 -458.273 133.3
403239 2 3.36621 -29.8799 381.755 0 64.4061 -458.273 133.3
403203 2 -2.10967 -27.2494 380.97 0 64.4061 -458.273 133.3
403206 2 -3.04265 -27.948 381.752 0 64.4061 -458.273 133.3
403207 2 -1.18882 -26.3264 381.595 0 64.4061 -458.273 133.3
403215 2 -3.08293 -27.7448 383.183 0 64.4061 -458.273 133.3
403216 2 -1.22792 -26.1291 382.984 0 64.4061 -458.273 133.3
403209 2 0.0830659 -26.435 380.916 0 64.4061 -458.273 133.3
403217 2 1.27857 -26.3432 381.646 0 64.4061 -458.273 133.3
403227 2 1.23829 -26.1399 383.077 0 64.4061 -458.273 133.3
403223 2 2.37538 -27.2386 381.352 0 64.4061 -458.273 133.3
403233 2 3.01296 -27.5888 382.602 0 64.4061 -458.273 133.3
403238 2 -2.37538 -31.6592 384.21 0 64.4061 -458.273 133.3
403244 2 -1.27857 -32.5547 383.917 0 64.4061 -458.273 133.3
403252 2 -0.0830659 -32.4628 384.647 0 64.4061 -458.273 133.3
403254 2 1.18882 -32.5714 383.967 0 64.4061 -458.273 133.3
403257 2 0.051728 -31.4727 385.692 0 64.4061 -458.273 133.3
403258 2 2.10967 -31.6484 384.593 0 64.4061 -458.273 133.3
403222 2 -3.36621 -29.0179 383.807 0 64.4061 -458.273 133.3
403232 2 -2.74732 -29.3578 385.02 0 64.4061 -458.273 133.3
403242 2 -2.24453 -30.6981 385.225 0 64.4061 -458.273 133.3
403256 2 2.61887 -28.8919 385.105 0 64.4061 -458.273 133.3
403251 2 3.30103 -29.5511 384.071 0 64.4061 -458.273 133.3
403255 2 3.04265 -30.9498 383.811 0 64.4061 -458.273 133.3
403260 2 1.40692 -30.9694 385.659 0 64.4061 -458.273 133.3
403220 2 -2.18906 -26.8488 383.79 0 64.4061 -458.273 133.3
403240 2 -1.82646 -28.4349 385.646 0 64.4061 -458.273 133.3
403231 2 -1.55148 -27.199 385.04 0 64.4061 -458.273 133.3
403247 2 0.844204 -27.443 385.58 0 64.4061 -458.273 133.3
403235 2 -0.196292 -26.6957 385.006 0 64.4061 -458.273 133.3
403248 2 2.11609 -27.5516 384.901 0 64.4061 -458.273 133.3
403237 2 2.3102 -26.9098 383.668 0 64.4061 -458.273 133.3
403225 2 0.00368088 -26.0345 383.736 0 64.4061 -458.273 133.3
403253 2 0.560924 -28.7162 386.205 0 64.4061 -458.273 133.3
403249 2 -0.754551 -29.2047 386.237 0 64.4061 -458.273 133.3
403250 2 -1.01293 -30.6035 385.977 0 64.4061 -458.273 133.3
403259 2 1.65773 -29.6116 385.911 0 64.4061 -458.273 133.3
ITEM: TIMESTEP
25
ITEM: NUMBER OF ATOMS
60
ITEM: BOX BOUNDS pp pp mm
-1.0859999999999999e+02 1.0859999999999999e+02
-1.0859999999999999e+02 1.0859999999999999e+02
-8.6916753651232256e+01 5.4300000000000000e+02
ITEM: ATOMS id type x y z vx vy vz c_atom_ke
403259 2 1.88113 -28.0017 374.873 10.7936 67.4917 -438.557 122.62
403250 2 -1.16376 -29.1325 374.947 -9.33038 60.0212 -438.062 121.739
403249 2 -0.875112 -27.5699 375.238 -8.51594 64.4196 -437.244 121.625
403253 2 0.65585 -27.0013 375.2 7.34239 70.3094 -437.633 122.319
403225 2 -0.015226 -23.9707 372.416 -3.67963 85.4057 -450.513 130.877
403237 2 2.61908 -24.9534 372.309 14.5757 81.7124 -456.601 134.054
403248 2 2.39317 -25.7004 373.744 12.2354 73.9737 -441.735 124.953
403235 2 -0.23863 -24.7094 373.835 -4.30997 83.3227 -446.512 128.428
403247 2 0.972308 -25.5791 374.503 8.23532 74.3173 -439.6 123.763
403231 2 -1.75255 -25.2716 373.872 -8.57276 81.7407 -446.408 128.242
403240 2 -2.07257 -26.7099 374.578 -11.8874 66.843 -439.103 122.88
403220 2 -2.46482 -24.8804 372.476 -10.5804 82.8433 -450.345 130.576
403202 2 -1.88113 -27.6758 367.776 -10.7948 61.3204 -477.988 144.621
403230 2 1.75255 -30.4059 368.776 8.57321 47.0695 -470.135 138.998
403214 2 -0.97231 -30.0985 368.146 -8.23336 54.4958 -476.947 143.479
403226 2 0.238625 -30.9682 368.814 4.30905 45.4887 -470.033 138.813
403213 2 -2.39317 -29.9771 368.905 -12.2364 54.838 -474.81 142.288
403260 2 1.58923 -29.5819 374.579 7.77196 51.1237 -441.602 123.045
403255 2 3.46011 -29.5274 372.478 21.2294 57.4089 -454.386 130.842
403251 2 3.74875 -27.9648 372.768 22.0421 61.8104 -453.565 130.727
403256 2 2.95485 -27.1977 373.972 13.8175 69.7576 -441.091 124.248
403242 2 -2.53961 -29.2382 374.108 -13.2034 59.7204 -440.428 123.065
403232 2 -3.1013 -27.741 373.879 -14.7867 63.9384 -441.072 123.77
403222 2 -3.82157 -27.3454 372.467 -22.2465 68.036 -455.695 132.441
403258 2 2.3743 -30.3405 373.388 9.97947 48.9869 -444.953 124.786
403257 2 0.0753048 -30.1441 374.616 3.50644 49.5374 -441.498 122.859
403254 2 1.34558 -31.3715 372.689 7.08394 46.0834 -446.922 125.676
403252 2 -0.0752724 -31.2502 373.448 3.08337 46.4267 -444.783 124.483
403244 2 -1.46662 -31.3571 372.599 -11.331 45.3172 -453.584 129.415
403238 2 -2.6919 -30.3567 372.927 -14.7811 48.1351 -452.659 129.113
403233 2 3.40416 -25.712 371.118 16.7874 79.5753 -459.956 135.797
403223 2 2.69189 -25.3208 369.722 14.7814 80.6774 -463.886 138.127
403227 2 1.42162 -24.0934 371.649 11.2025 84.1341 -458.46 135.309
403217 2 1.46661 -24.3204 370.05 11.3311 83.4942 -462.964 137.827
403209 2 0.0752832 -24.4273 369.201 -3.08201 82.386 -471.763 142.758
403216 2 -1.39109 -24.0764 371.576 -7.55517 85.107 -452.875 132.201
403246 2 3.50511 -29.7544 370.879 21.3564 56.7709 -458.883 133.357
403215 2 -3.5051 -25.9231 371.77 -21.3552 72.0426 -457.658 133.882
403207 2 -1.34557 -24.306 369.96 -7.0843 82.73 -469.621 141.564
403206 2 -3.46011 -26.1501 370.171 -21.2284 71.4022 -462.165 136.402
403241 2 2.46481 -30.7971 370.173 10.579 45.9691 -466.206 136.668
403245 2 1.39109 -31.6011 371.073 7.55526 43.7048 -463.669 135.039
403236 2 0.015233 -31.7068 370.233 3.68118 43.4068 -466.034 136.365
403203 2 -2.37431 -25.3371 369.261 -9.98179 79.8239 -471.592 142.455
403224 2 -2.61908 -30.7241 370.34 -14.5765 47.1008 -459.945 133.187
403239 2 3.82157 -28.3322 370.182 22.2462 60.7762 -460.852 134.801
403243 2 3.97215 -27.2261 371.349 22.6712 63.8903 -457.561 133.173
403228 2 -3.40415 -29.9655 371.531 -16.7872 49.2369 -456.591 131.445
403210 2 -3.74876 -27.7127 369.881 -22.0414 67.0021 -462.982 136.515
403234 2 -1.42162 -31.5841 371 -11.2039 44.678 -458.084 131.931
403219 2 2.53961 -26.4393 368.541 13.2025 69.0909 -476.12 144.178
403211 2 1.16376 -26.545 367.702 9.32914 68.7934 -478.483 145.502
403218 2 -3.97215 -28.4514 371.3 -22.6712 64.9207 -458.984 134.067
403204 2 -0.0752977 -25.5334 368.033 -3.50601 79.2732 -475.049 144.383
403201 2 -1.58923 -26.0956 368.07 -7.77022 77.6882 -474.945 144.197
403221 2 2.07257 -28.9676 368.071 11.8873 61.971 -477.444 144.362
403229 2 3.10129 -27.9366 368.77 14.7877 64.8735 -475.473 143.47
403208 2 -0.655848 -28.6762 367.449 -7.34288 58.5021 -478.913 144.922
403212 2 0.875112 -28.1076 367.411 8.51695 64.3914 -479.302 145.616
403205 2 -2.95485 -28.4798 368.676 -13.8183 59.0557 -475.453 142.992
ITEM: TIMESTEP
50
ITEM: NUMBER OF ATOMS
60
ITEM: BOX BOUNDS pp pp mm
-1.0859999999999999e+02 1.0859999999999999e+02
-1.0859999999999999e+02 1.0859999999999999e+02
-8.6916753651232256e+01 5.4300000000000000e+02
ITEM: ATOMS id type x y z vx vy vz c_atom_ke
403259 2 1.97287 -26.3974 363.588 -4.30855 62.967 -466.109 137.706
403250 2 -1.22186 -27.5839 363.667 3.86091 66.0018 -466.31 138.064
403249 2 -0.919576 -25.9474 363.971 3.57922 64.4782 -466.593 138.103
403253 2 0.68967 -25.3498 363.932 -3.11568 61.9914 -466.428 137.81
403225 2 -0.0178048 -22.1725 361.013 1.65523 56.0867 -461.45 134.497
403237 2 2.74659 -23.2021 360.898 -5.79468 57.4594 -458.733 133.057
403248 2 2.50913 -23.9873 362.407 -4.80576 60.7261 -465.011 136.9
403235 2 -0.25177 -22.9461 362.5 1.86969 56.8051 -462.829 135.341
403247 2 1.02109 -23.8603 363.201 -3.42412 60.6099 -465.75 137.312
403231 2 -1.83727 -23.5349 362.539 3.34829 57.3527 -462.864 135.405
403240 2 -2.17367 -25.0468 363.28 4.74403 63.6427 -465.95 137.67
403220 2 -2.5832 -23.1252 361.076 4.0377 56.9718 -461.509 134.601
403202 2 -1.97287 -26.0598 356.147 4.30866 65.8442 -450.437 128.996
403230 2 1.83728 -28.9223 357.197 -3.34442 71.4598 -453.68 131.297
403214 2 -1.02109 -28.5969 356.534 3.42305 68.2036 -450.797 129.391
403226 2 0.251761 -29.5111 357.236 -1.87233 72.0055 -453.714 131.36
403213 2 -2.50912 -28.4699 357.329 4.80712 68.0864 -451.536 129.803
403260 2 1.66605 -28.0584 363.28 -3.03107 69.8783 -464.823 137.527
403255 2 3.62957 -27.9982 361.076 -8.5433 67.0603 -459.687 134.37
403251 2 3.93187 -26.3617 361.38 -8.82602 65.5392 -459.965 134.407
403256 2 3.09737 -25.5554 362.646 -5.35254 62.1838 -465.234 137.144
403242 2 -2.66278 -27.6946 362.787 5.20021 66.102 -465.492 137.605
403232 2 -3.25102 -26.1266 362.548 5.74637 64.6458 -465.27 137.362
403222 2 -4.00812 -25.7107 361.064 8.89556 62.9162 -459.097 133.702
403258 2 2.48825 -28.8529 362.033 -3.79712 70.6143 -463.665 136.925
403257 2 0.0805448 -28.6472 363.319 -1.55926 70.4239 -464.861 137.592
403254 2 1.41088 -29.9327 361.301 -2.79404 71.6191 -462.985 136.618
403252 2 -0.0771642 -29.8056 362.096 -1.41091 71.4997 -463.724 137.03
403244 2 -1.53963 -29.918 361.203 4.67255 71.9686 -460.009 134.948
403238 2 -2.82285 -28.8703 361.546 5.86483 70.9954 -460.329 135.053
403233 2 3.56878 -23.9966 359.651 -6.5589 58.1982 -457.576 132.456
403223 2 2.82285 -23.5869 358.189 -5.86487 57.8183 -456.216 131.65
403227 2 1.49251 -22.3015 360.207 -4.62794 56.6232 -458.093 132.625
403217 2 1.53964 -22.5392 358.532 -4.67413 56.8439 -456.537 131.755
403209 2 0.0771481 -22.6516 357.64 1.41137 57.312 -452.821 129.672
403216 2 -1.45872 -22.2832 360.134 2.99265 56.1885 -460.628 134.036
403246 2 3.67669 -28.236 359.402 -8.58802 67.2802 -458.128 133.499
403215 2 -3.6767 -24.2212 360.334 8.58853 61.5321 -458.417 133.203
403207 2 -1.41088 -22.5245 358.434 2.79579 57.1926 -453.564 130.086
403206 2 -3.62957 -24.459 358.659 8.54343 61.7521 -456.859 132.332
403241 2 2.58321 -29.332 358.659 -4.03944 71.8401 -455.039 132.103
403245 2 1.45872 -30.174 359.602 -2.99396 72.6228 -455.915 132.665
403236 2 0.0178011 -30.2847 358.722 -1.65395 72.7268 -455.1 132.208
403203 2 -2.48824 -23.6044 357.703 3.79601 58.1968 -452.881 129.777
403224 2 -2.74659 -29.2551 358.837 5.79476 71.3519 -457.811 133.645
403239 2 4.00812 -26.7465 358.671 -8.89616 65.8966 -457.451 133.002
403243 2 4.16582 -25.5881 359.894 -9.04241 64.8196 -458.587 133.563
403228 2 -3.56879 -28.4606 360.084 6.55907 70.6133 -458.97 134.246
403210 2 -3.93186 -26.0955 358.355 8.82591 63.2741 -456.58 132.295
403234 2 -1.49251 -30.1558 359.529 4.62866 72.1893 -458.453 134.078
403219 2 2.66279 -24.7626 356.948 -5.20003 62.7087 -451.054 129.097
403211 2 1.22187 -24.8733 356.068 -3.86006 62.8113 -450.236 128.638
403218 2 -4.16582 -26.8691 359.841 9.04257 63.9919 -457.959 133.139
403204 2 -0.0805526 -23.81 356.417 1.5584 58.3884 -451.686 129.111
403201 2 -1.66605 -24.3988 356.456 3.03108 58.9356 -451.721 129.175
403221 2 2.17366 -27.4105 356.455 -4.74634 65.1711 -450.597 129.033
403229 2 3.25101 -26.3306 357.187 -5.74565 64.1657 -451.275 129.34
403208 2 -0.689673 -27.1074 355.804 3.11572 66.8202 -450.117 128.892
403212 2 0.919572 -26.5098 355.764 -3.57876 64.332 -449.953 128.599
403205 2 -3.09736 -26.9018 357.09 5.35305 66.6274 -451.312 129.559
ITEM: TIMESTEP
75
ITEM: NUMBER OF ATOMS
60
ITEM: BOX BOUNDS pp pp mm
-1.0859999999999999e+02 1.0859999999999999e+02
-1.0859999999999999e+02 1.0859999999999999e+02
-8.6916753651232256e+01 5.4300000000000000e+02
ITEM: ATOMS id type x y z vx vy vz c_atom_ke
403259 2 1.7299 -24.7758 351.675 -10.8967 62.9154 -478.432 145.009
403250 2 -1.06525 -25.8139 351.744 8.34567 70.0635 -478.905 145.852
403249 2 -0.798223 -24.3684 352.012 7.18391 63.7705 -480.075 146.015
403253 2 0.596433 -23.8504 351.978 -5.96295 58.8898 -479.752 145.439
403225 2 -0.00728481 -21.0591 349.412 2.26267 42.727 -465.501 136.014
403237 2 2.40938 -21.9665 349.324 -14.8963 47.2428 -461.569 134.133
403248 2 2.20359 -22.6469 350.631 -12.9558 53.6563 -473.891 141.676
403235 2 -0.21394 -21.7424 350.725 3.15852 45.6988 -471.211 139.51
403247 2 0.88919 -22.5347 351.333 -7.2366 53.17 -476.947 143.381
403231 2 -1.61444 -22.2625 350.759 9.25596 47.9626 -471.361 139.776
403240 2 -1.90598 -23.5728 351.402 11.9971 60.314 -477.422 144.224
403220 2 -2.27334 -21.9007 349.468 12.1191 46.3882 -465.745 136.446
403202 2 -1.7299 -24.4611 345.147 10.8957 65.8944 -438.113 122.247
403230 2 1.61445 -26.9744 346.063 -9.2514 80.8504 -445.183 127.479
403214 2 -0.889181 -26.7022 345.489 7.23654 75.6439 -439.601 123.877
403226 2 0.213943 -27.4945 346.097 -3.16194 83.1102 -445.331 127.745
403213 2 -2.20359 -26.59 346.191 12.9556 75.1567 -442.655 125.581
403260 2 1.464 -26.2153 351.407 -8.38803 76.4881 -475.908 144.658
403255 2 3.17939 -26.1764 349.477 -20.8709 72.5567 -463.305 137.153
403251 2 3.44642 -24.7309 349.745 -22.0338 66.2699 -464.469 137.313
403256 2 2.72319 -24.032 350.842 -15.2141 59.6809 -474.813 142.685
403242 2 -2.33803 -25.9117 350.967 13.8796 70.4867 -475.527 143.959
403232 2 -2.85762 -24.5266 350.755 16.1426 64.4637 -474.606 142.951
403222 2 -3.51378 -24.1662 349.469 22.3257 61.0649 -462.485 135.764
403258 2 2.19025 -26.9171 350.306 -11.5479 79.5366 -471.12 142.171
403257 2 0.0635043 -26.7354 351.442 -2.29711 78.7479 -476.061 144.926
403254 2 1.23861 -27.8709 349.659 -7.40751 83.689 -468.306 140.898
403252 2 -0.0758043 -27.7586 350.361 -1.68938 83.2001 -471.36 142.601
403244 2 -1.34326 -27.856 349.588 10.2583 84.1169 -464.069 138.516
403238 2 -2.47674 -26.9306 349.891 15.1876 80.0923 -465.387 138.945
403233 2 3.13564 -22.6682 348.222 -18.0553 50.2945 -456.78 131.645
403223 2 2.47675 -22.3063 346.931 -15.1854 48.7186 -451.156 128.311
403227 2 1.30164 -21.1709 348.713 -10.0763 43.7805 -458.911 132.339
403217 2 1.34327 -21.3809 347.234 -10.258 44.6953 -452.477 128.742
403209 2 0.0757963 -21.4783 346.46 1.68878 45.6134 -445.183 124.654
403216 2 -1.28006 -21.1569 348.635 7.79814 43.1528 -462.119 134.119
403246 2 3.22102 -26.3864 347.998 -21.0532 73.4696 -456.865 133.552
403215 2 -3.22103 -22.8505 348.824 21.0519 55.3407 -459.677 133.703
403207 2 -1.23861 -21.366 347.162 7.40882 45.123 -448.244 126.361
403206 2 -3.17939 -23.0605 347.345 20.8705 56.2542 -453.243 130.105
403241 2 2.27334 -27.3363 347.354 -12.1192 82.4254 -450.804 130.812
403245 2 1.28007 -28.08 348.187 -7.7981 85.6592 -454.421 133.135
403236 2 0.00727933 -28.1778 347.41 -2.26232 86.0858 -451.047 131.245
403203 2 -2.19025 -22.3199 346.516 11.549 49.2744 -445.428 125.087
403224 2 -2.40939 -27.2705 347.498 14.8946 81.5702 -454.976 133.124
403239 2 3.51377 -25.0707 347.352 -22.3271 67.748 -454.065 131.496
403243 2 3.65307 -24.0475 348.433 -22.9318 63.2969 -458.762 133.818
403228 2 -3.13564 -26.5687 348.6 18.0548 78.5179 -459.77 135.614
403210 2 -3.44641 -24.5061 347.076 22.0326 62.544 -452.074 129.943
403234 2 -1.30164 -28.0661 348.109 10.0769 85.0312 -457.633 134.917
403219 2 2.33802 -23.3252 345.855 -13.8822 58.3241 -441.021 123.299
403211 2 1.06525 -23.423 345.078 -8.34357 58.7505 -437.639 121.404
403218 2 -3.65307 -25.1894 348.389 22.9319 65.5168 -457.784 133.438
403204 2 -0.0635022 -22.5015 345.38 2.29538 50.0628 -440.488 122.332
403201 2 -1.46399 -23.0216 345.414 8.38775 52.3269 -440.635 122.598
403221 2 1.90597 -25.6642 345.42 -12.0013 68.5004 -439.127 123.034
403229 2 2.85762 -24.7103 346.066 -16.1389 64.3488 -441.936 124.304
403208 2 -0.596432 -25.3865 344.844 5.96329 69.9229 -436.794 121.817
403212 2 0.798223 -24.8685 344.809 -7.18159 65.0371 -436.47 121.241
403205 2 -2.72319 -25.2049 345.979 15.2159 69.1295 -441.736 124.573
ITEM: TIMESTEP
100
ITEM: NUMBER OF ATOMS
60
ITEM: BOX BOUNDS pp pp mm
-1.0859999999999999e+02 1.0859999999999999e+02
-1.0859999999999999e+02 1.0859999999999999e+02
-8.6916753651232256e+01 5.4300000000000000e+02
ITEM: ATOMS id type x y z vx vy vz c_atom_ke
403259 2 1.74235 -23.1656 340.241 11.3719 65.9118 -437.229 121.773
403250 2 -1.0737 -24.2115 340.311 -8.67559 58.4606 -436.732 120.892
403249 2 -0.804985 -22.7569 340.581 -7.45452 65.0858 -435.504 120.723
403253 2 0.601786 -22.2344 340.547 6.17989 70.1485 -435.835 121.318
403225 2 -0.00837863 -19.4237 337.963 -2.31512 87.0432 -450.749 131.18
403237 2 2.42658 -20.337 337.872 15.5508 82.3071 -454.786 133.104
403248 2 2.21904 -21.0234 339.191 13.5401 75.6602 -442.004 125.279
403235 2 -0.216339 -20.1113 339.284 -3.26268 83.9173 -444.733 127.498
403247 2 0.89635 -20.9105 339.897 7.51772 76.1706 -438.794 123.489
403231 2 -1.62562 -20.6347 339.318 -9.67176 81.531 -444.576 127.217
403240 2 -1.91972 -21.9563 339.967 -12.5225 68.7318 -438.296 122.608
403220 2 -2.28867 -20.2705 338.019 -12.6943 83.1918 -450.495 130.727
403202 2 -1.74238 -22.851 333.667 -11.3731 62.9056 -479.321 145.545
403230 2 1.62564 -25.382 334.59 9.67395 47.2768 -471.97 140.098
403214 2 -0.896376 -25.1062 334.011 -7.52135 52.6369 -477.755 143.829
403226 2 0.216345 -25.9053 334.624 3.26264 44.8986 -471.81 139.816
403213 2 -2.21901 -24.9932 334.717 -13.5368 53.1533 -474.539 142.035
403260 2 1.47416 -24.6176 339.971 8.77016 51.8383 -439.838 122.134
403255 2 3.20268 -24.5767 338.027 21.7639 55.8652 -452.988 129.958
403251 2 3.47141 -23.1221 338.297 22.9904 62.4864 -451.762 129.79
403256 2 2.74187 -22.4172 339.404 15.9148 69.3152 -441.035 124.218
403242 2 -2.35447 -24.3099 339.529 -14.5006 58.0208 -440.286 122.884
403232 2 -2.87731 -22.9161 339.316 -16.8838 64.3597 -441.263 123.95
403222 2 -3.53918 -22.5526 338.019 -23.2961 67.8815 -453.827 131.4
403258 2 2.20497 -25.3238 338.863 12.0961 48.6265 -444.885 124.755
403257 2 0.0648546 -25.141 340.006 2.35724 49.463 -439.686 121.856
403254 2 1.24733 -26.2836 338.213 7.73701 44.2608 -447.843 126.092
403252 2 -0.075318 -26.1707 338.919 1.72005 44.769 -444.63 124.301
403244 2 -1.35379 -26.2688 338.139 -10.6658 43.8228 -452.193 128.539
403238 2 -2.49439 -25.3376 338.444 -15.8603 48.0574 -450.806 128.087
403233 2 3.15742 -21.0431 336.764 18.8767 79.0964 -459.825 135.721
403223 2 2.49442 -20.679 335.464 15.859 80.7551 -465.745 139.232
403227 2 1.31191 -19.5364 337.258 10.4784 85.956 -457.578 134.989
403217 2 1.35379 -19.7478 335.769 10.6673 84.9894 -464.357 138.779
403209 2 0.0753112 -19.846 334.989 -1.71928 84.0375 -471.915 143.014
403216 2 -1.28916 -19.5221 337.181 -8.14414 86.5979 -454.308 133.175
403246 2 3.24458 -24.788 336.538 21.9553 54.9062 -459.77 133.75
403215 2 -3.24459 -21.2286 337.37 -21.9554 73.9076 -456.783 133.57
403207 2 -1.24735 -19.733 335.695 -7.73884 84.5545 -468.699 141.221
403206 2 -3.20269 -21.4399 335.881 -21.7635 72.9491 -463.555 137.356
403241 2 2.28866 -25.7461 335.889 12.6942 45.6214 -466.049 136.588
403245 2 1.28915 -26.4946 336.727 8.14204 42.2124 -462.247 134.146
403236 2 0.00838057 -26.593 335.945 2.31503 41.7654 -465.794 136.133
403203 2 -2.20496 -20.6928 335.045 -12.0964 80.1827 -471.664 142.562
403224 2 -2.42661 -25.6796 336.036 -15.5505 46.5013 -461.762 134.213
403239 2 3.53917 -23.464 335.889 23.2971 60.9245 -462.709 135.91
403243 2 3.67935 -22.4344 336.976 23.934 65.6155 -457.772 133.469
403228 2 -3.15741 -24.9735 337.144 -18.8763 49.7179 -456.717 131.593
403210 2 -3.47137 -22.8946 335.611 -22.9849 66.3252 -464.789 137.529
403234 2 -1.3119 -26.4802 336.65 -10.4767 42.8591 -458.967 132.326
403219 2 2.35445 -21.7067 334.379 14.5067 70.7923 -476.25 144.425
403211 2 1.07368 -21.8052 333.597 8.67238 70.3432 -479.812 146.421
403218 2 -3.67935 -23.5822 336.932 -23.9339 63.197 -458.773 133.846
403204 2 -0.0648517 -20.8756 333.902 -2.35843 79.357 -476.864 145.462
403201 2 -1.47414 -21.399 333.937 -8.77215 76.9701 -476.699 145.177
403221 2 1.91969 -24.0603 333.941 12.5248 60.0851 -478.245 144.705
403229 2 2.87735 -23.1005 334.592 16.8784 64.4554 -475.297 143.374
403208 2 -0.601764 -23.7822 333.362 -6.17605 58.6643 -480.705 145.995
403212 2 0.805006 -23.2598 333.327 7.45202 63.7282 -481.048 146.596
403205 2 -2.7419 -23.5995 334.504 -15.9191 59.4978 -475.509 143.097
ITEM: TIMESTEP
125
ITEM: NUMBER OF ATOMS
60
ITEM: BOX BOUNDS pp pp mm
-1.0859999999999999e+02 1.0859999999999999e+02
-1.0859999999999999e+02 1.0859999999999999e+02
-8.6916753651232256e+01 5.4300000000000000e+02
ITEM: ATOMS id type x y z vx vy vz c_atom_ke
403248 2 2.51457 -19.1522 328.042 3.91911 67.3293 -452.542 130.3
403247 2 1.02364 -19.0249 328.838 2.98001 67.4138 -452.033 130.017
403235 2 -0.252659 -18.1082 328.135 -1.70283 70.7687 -454.618 131.761
403231 2 -1.84117 -18.6982 328.174 -2.70872 70.4007 -454.589 131.714
403256 2 3.10389 -20.7233 328.282 4.29253 66.3355 -452.384 130.13
403251 2 3.9407 -21.5318 327.013 7.36374 63.3717 -457.045 132.552
403259 2 1.97722 -21.5669 329.226 3.58298 65.8036 -451.789 129.748
403253 2 0.691586 -20.5173 329.57 2.77007 66.4657 -451.576 129.68
403249 2 -0.922014 -21.1166 329.61 -3.15133 64.269 -451.423 129.417
403232 2 -3.25786 -21.296 328.184 -4.63035 64.1538 -452.329 129.924
403240 2 -2.1785 -20.2141 328.917 -3.944 64.8409 -451.869 129.717
403258 2 2.49337 -24.0284 327.667 2.97514 59.1915 -453.717 130.318
403260 2 1.66962 -23.2324 328.916 2.45185 59.6941 -452.932 129.911
403257 2 0.0810631 -23.8223 328.955 1.44868 59.3193 -452.895 129.86
403250 2 -1.22492 -22.7561 329.305 -3.34074 63.2298 -451.623 129.448
403238 2 -2.82903 -24.046 327.179 -4.84322 58.838 -456.745 132.018
403242 2 -2.66855 -22.867 328.424 -4.25372 63.1646 -452.175 129.757
403252 2 -0.076926 -24.983 327.73 1.34902 58.5904 -453.681 130.249
403233 2 3.57641 -19.1609 325.28 5.31681 69.7147 -458.874 134.104
403237 2 2.75261 -18.3649 326.529 4.79821 70.2211 -458.09 133.697
403213 2 -2.51451 -23.6441 322.952 -3.92258 61.4805 -464.008 136.373
403214 2 -1.02367 -23.7714 322.156 -2.97868 61.4034 -464.507 136.651
403226 2 0.252666 -24.688 322.86 1.70394 58.0391 -461.933 134.913
403208 2 -0.691595 -22.279 321.424 -2.76709 62.3434 -464.979 136.996
403230 2 1.84118 -24.0981 322.821 2.70452 58.4115 -461.952 134.954
403221 2 2.17848 -22.5822 322.077 3.94888 63.9703 -464.682 136.957
403202 2 -1.97726 -21.2294 321.768 -3.58044 63.0087 -464.753 136.92
403210 2 -3.94062 -21.2645 323.982 -7.36459 65.4397 -459.505 134.121
403201 2 -1.66959 -19.5639 322.078 -2.45673 69.1204 -463.622 136.765
403205 2 -3.1039 -22.0731 322.713 -4.29365 62.4754 -464.157 136.537
403211 2 1.22485 -20.0402 321.689 3.34163 65.5798 -464.929 137.227
403212 2 0.922019 -21.6798 321.384 3.14768 64.5457 -465.113 137.249
403219 2 2.66853 -19.9293 322.571 4.25839 65.6503 -464.367 136.912
403229 2 3.25793 -21.5003 322.81 4.62042 64.6607 -464.22 136.749
403207 2 -1.41397 -17.6861 324.06 -2.29216 70.3051 -462.364 136.143
403203 2 -2.49338 -18.7679 323.327 -2.97379 69.6192 -462.831 136.354
403209 2 0.0769143 -17.8134 323.264 -1.34853 70.2271 -462.87 136.425
403204 2 -0.0810798 -18.9739 322.039 -1.44808 69.4876 -463.641 136.805
403223 2 2.82909 -18.7503 323.815 4.84204 69.972 -459.804 134.655
403244 2 -1.54336 -25.0955 326.835 -4.03098 58.172 -456.957 132.085
403234 2 -1.49617 -25.3338 325.158 -3.99967 58.0235 -458.021 132.68
403254 2 1.41392 -25.1102 326.934 2.29307 58.5057 -454.176 130.525
403245 2 1.46191 -25.3523 325.23 2.46565 57.6198 -460.432 134.023
403236 2 0.0182477 -25.4632 324.349 1.55457 57.5483 -460.984 134.333
403224 2 -2.75265 -24.4314 324.465 -4.79385 58.5947 -458.459 132.976
403228 2 -3.57638 -23.6355 325.714 -5.31615 59.0972 -457.667 132.564
403255 2 3.63778 -23.1714 326.708 7.17146 62.3334 -457.234 132.577
403246 2 3.68501 -23.4096 325.03 7.20083 62.1856 -458.299 133.173
403241 2 2.58852 -24.5086 324.286 3.1816 58.1523 -461.027 134.405
403218 2 -4.17507 -22.0396 325.471 -7.5108 64.9513 -458.562 133.544
403222 2 -4.01708 -20.879 326.696 -7.41028 65.6853 -457.786 133.16
403215 2 -3.68502 -19.3867 325.964 -7.20137 66.6297 -458.249 133.5
403206 2 -3.63779 -19.6249 324.287 -7.17194 66.4791 -459.31 134.093
403239 2 4.01704 -21.9173 324.298 7.41442 63.1236 -458.753 133.507
403243 2 4.17508 -20.7567 325.524 7.51106 63.8626 -457.987 133.129
403220 2 -2.58854 -18.2877 326.709 -3.18082 70.659 -455.521 132.267
403216 2 -1.46192 -17.4441 325.764 -2.46694 71.1922 -456.114 132.648
403225 2 -0.0182428 -17.3332 326.646 -1.55308 71.2676 -455.563 132.34
403227 2 1.49619 -17.4624 325.837 3.99727 70.785 -458.52 133.988
403217 2 1.54341 -17.7007 324.159 4.03155 70.6397 -459.588 134.585
ITEM: TIMESTEP
150
ITEM: NUMBER OF ATOMS
60
ITEM: BOX BOUNDS pp pp mm
-1.0859999999999999e+02 1.0859999999999999e+02
-1.0859999999999999e+02 1.0859999999999999e+02
-8.6916753651232256e+01 5.4300000000000000e+02
ITEM: ATOMS id type x y z vx vy vz c_atom_ke
403248 2 2.37816 -17.6622 316.442 -12.7653 54.3481 -475.303 142.554
403247 2 0.964195 -17.5414 317.197 -8.41488 53.9809 -477.624 143.849
403235 2 -0.235191 -16.6801 316.536 4.328 44.8217 -470.598 139.106
403231 2 -1.74186 -17.2395 316.573 8.96505 46.5486 -470.712 139.31
403256 2 2.93718 -19.1522 316.669 -14.4851 58.9341 -476.001 143.32
403251 2 3.72348 -19.912 315.477 -22.8424 67.0054 -463.33 136.738
403259 2 1.86864 -19.9524 317.565 -11.1971 61.402 -478.755 145.089
403253 2 0.649234 -18.9569 317.891 -7.44638 58.333 -479.762 145.417
403249 2 -0.867112 -19.52 317.929 8.66887 64.3187 -480.157 146.122
403232 2 -3.0826 -19.6902 316.576 15.4828 64.8377 -475.993 143.789
403240 2 -2.05879 -18.6641 317.272 12.3348 61.6851 -478.136 144.759
403258 2 2.36082 -22.2724 316.089 -10.527 80.35 -472.023 142.768
403260 2 1.57946 -21.5174 317.274 -8.12732 78.0284 -475.666 144.659
403257 2 0.0728795 -22.0771 317.311 -3.48951 79.75 -475.775 144.86
403250 2 -1.15434 -21.075 317.64 9.5504 69.106 -479.27 146
403238 2 -2.6744 -22.2881 315.634 15.3649 81.1952 -464.276 138.416
403242 2 -2.52361 -21.1803 316.804 13.7638 69.4286 -476.696 144.558
403252 2 -0.0769779 -23.1777 316.149 -3.02709 83.1365 -472.207 143.096
403233 2 3.38328 -17.6772 313.836 -17.5465 48.811 -456.552 131.413
403237 2 2.602 -16.9223 315.021 -15.1432 46.4907 -460.197 133.306
403213 2 -2.37821 -21.9139 311.639 12.7665 74.4621 -441.245 124.737
403214 2 -0.964158 -22.0346 310.883 8.41232 74.8326 -438.918 123.439
403226 2 0.235193 -22.896 311.545 -4.32527 83.9875 -445.951 128.186
403208 2 -0.64926 -20.6192 310.189 7.44336 70.4783 -436.788 121.875
403230 2 1.74181 -22.3364 311.508 -8.96814 82.2617 -445.83 127.978
403221 2 2.05882 -20.9119 310.809 -12.3288 67.1254 -438.407 122.53
403202 2 -1.86859 -19.6236 310.516 11.1993 67.4128 -437.787 122.199
403210 2 -3.72353 -19.664 312.604 22.8383 61.8027 -453.214 130.55
403201 2 -1.57955 -18.0585 310.806 8.12689 50.7865 -440.884 122.633
403205 2 -2.93716 -20.4238 311.411 14.4854 69.877 -440.543 123.969
403211 2 1.15438 -18.5009 310.441 -9.55254 59.7073 -437.282 121.294
403212 2 0.867087 -20.056 310.152 -8.66885 64.4983 -436.387 121.167
403219 2 2.52359 -18.3957 311.277 -13.7603 59.3862 -439.851 122.733
403229 2 3.08253 -19.8858 311.504 -15.4873 63.9697 -440.552 123.501
403207 2 -1.33702 -16.2775 312.687 7.38146 45.3031 -446.669 125.494
403203 2 -2.3608 -17.3036 311.991 10.5322 48.4635 -444.527 124.525
403209 2 0.0769807 -16.3982 311.932 3.02784 45.6742 -444.344 124.197
403204 2 -0.0728765 -17.499 310.77 3.49286 49.0641 -440.762 122.426
403223 2 2.67439 -17.2879 312.446 -15.3713 47.6141 -452.279 128.879
403244 2 -1.45506 -23.2837 315.308 11.6111 84.2619 -463.26 138.082
403234 2 -1.41024 -23.5096 313.717 11.4748 84.9571 -458.372 135.349
403254 2 1.33705 -23.2985 315.394 -7.38068 83.5077 -469.876 141.796
403245 2 1.38211 -23.5259 313.793 -7.85856 85.926 -452.866 132.286
403236 2 0.0128666 -23.6311 312.957 -3.64393 86.248 -450.289 130.842
403224 2 -2.60192 -22.6537 313.06 15.1441 82.3245 -456.35 133.985
403228 2 -3.38325 -21.8988 314.245 17.548 79.9989 -459.987 135.873
403255 2 3.43625 -21.4671 315.188 -21.9598 71.7916 -462.434 136.611
403246 2 3.481 -21.693 313.597 -22.0933 72.4918 -457.548 133.88
403241 2 2.45067 -22.7258 312.897 -11.1448 83.4638 -450.11 130.516
403218 2 -3.94579 -20.3991 314.016 23.5253 64.0662 -457.567 133.215
403222 2 -3.79594 -19.2984 315.178 23.0657 60.6798 -461.137 134.98
403215 2 -3.48103 -17.883 314.484 22.0942 56.3204 -459.005 133.415
403206 2 -3.43624 -18.1089 312.893 21.9555 57.0162 -454.105 130.675
403239 2 3.79599 -20.2776 312.903 -23.0627 68.1312 -455.404 132.307
403243 2 3.94583 -19.1769 314.065 -23.5259 64.749 -458.982 134.077
403220 2 -2.45065 -16.8502 315.184 11.1477 45.3519 -466.438 136.775
403216 2 -1.3821 -16.0501 314.288 7.85826 42.8876 -463.676 135.002
403225 2 -0.0128816 -15.9448 315.124 3.64668 42.5666 -466.256 136.448
403227 2 1.41025 -16.0665 314.364 -11.4776 43.854 -458.178 131.943
403217 2 1.45504 -16.2924 312.773 -11.6149 44.5504 -453.281 129.205
ITEM: TIMESTEP
175
ITEM: NUMBER OF ATOMS
60
ITEM: BOX BOUNDS pp pp mm
-1.0859999999999999e+02 1.0859999999999999e+02
-1.0859999999999999e+02 1.0859999999999999e+02
-8.6916753651232256e+01 5.4300000000000000e+02
ITEM: ATOMS id type x y z vx vy vz c_atom_ke